-- The following file was written from MATLAB using the MRST toolbox.

SPECGRID
20 20 10 1 F
/

COORD
    0.000000     0.000000     5.000000     0.000000     0.000000    55.000000 
    9.000000     0.000000     2.857685    10.000000     0.000000    52.620814 
   18.000000     0.000000     0.782767    20.000000     0.000000    50.346893 
   27.000000     0.000000    -1.068817    30.000000     0.000000    48.387405 
   36.000000     0.000000    -2.564563    40.000000     0.000000    46.912161 
   45.000000     0.000000    -3.605633    50.000000     0.000000    46.035534 
   54.000000     0.000000    -4.134301    60.000000     0.000000    45.806002 
   63.000000     0.000000    -4.138046    70.000000     0.000000    46.202325 
   72.000000     0.000000    -3.649953    80.000000     0.000000    47.136696 
   81.000000     0.000000    -2.745424    90.000000     0.000000    48.464545 
   90.000000     0.000000    -1.535455   100.000000     0.000000    50.000000 
  101.000000     0.000000     0.157044   110.000000     0.000000    51.535455 
  112.000000     0.000000     1.824028   120.000000     0.000000    52.863304 
  123.000000     0.000000     3.192465   130.000000     0.000000    53.797675 
  134.000000     0.000000     4.027093   140.000000     0.000000    54.193998 
  145.000000     0.000000     4.160422   150.000000     0.000000    53.964466 
  156.000000     0.000000     3.514588   160.000000     0.000000    53.087839 
  167.000000     0.000000     2.112408   170.000000     0.000000    51.612595 
  178.000000     0.000000     0.076276   180.000000     0.000000    49.653107 
  189.000000     0.000000    -2.385012   190.000000     0.000000    47.379186 
  200.000000     0.000000    -5.000000   200.000000     0.000000    45.000000 
    0.000000    10.000000     3.826742     0.000000    10.000000    53.826742 
    9.000000    10.000000     1.756774    10.000000    10.000000    51.533513 
   18.000000    10.000000    -0.158371    20.000000    10.000000    49.451982 
   27.000000    10.000000    -1.775443    30.000000    10.000000    47.772484 
   36.000000    10.000000    -2.980563    40.000000    10.000000    46.637422 
   45.000000    10.000000    -3.697970    50.000000    10.000000    46.127871 
   54.000000    10.000000    -3.895643    60.000000    10.000000    46.256377 
   63.000000    10.000000    -3.587345    70.000000    10.000000    46.966652 
   72.000000    10.000000    -2.830943    80.000000    10.000000    48.140156 
   81.000000    10.000000    -1.723143    90.000000    10.000000    49.608914 
   90.000000    10.000000    -0.391086   100.000000    10.000000    51.173258 
  101.000000    10.000000     1.326823   110.000000    10.000000    52.622756 
  112.000000    10.000000     2.880904   120.000000    10.000000    53.758216 
  123.000000    10.000000     4.011475   130.000000    10.000000    54.412596 
  134.000000    10.000000     4.511399   140.000000    10.000000    54.468736 
  145.000000    10.000000     4.252760   150.000000    10.000000    53.872129 
  156.000000    10.000000     3.204040   160.000000    10.000000    52.637464 
  167.000000    10.000000     1.435692   170.000000    10.000000    50.848268 
  178.000000    10.000000    -0.886593   180.000000    10.000000    48.649646 
  189.000000    10.000000    -3.520187   190.000000    10.000000    46.234817 
  200.000000    10.000000    -6.173258   200.000000    10.000000    43.826742 
    0.000000    20.000000     2.682373     0.000000    20.000000    52.682373 
    9.000000    20.000000     0.734493    10.000000    20.000000    50.530052 
   18.000000    20.000000    -0.977381    20.000000    20.000000    48.687655 
   27.000000    20.000000    -2.326143    30.000000    20.000000    47.322109 
   36.000000    20.000000    -3.219221    40.000000    20.000000    46.545085 
   45.000000    20.000000    -3.605633    50.000000    20.000000    46.402610 
   54.000000    20.000000    -3.479644    60.000000    20.000000    46.871299 
   63.000000    20.000000    -2.880719    70.000000    20.000000    47.861563 
   72.000000    20.000000    -1.889805    80.000000    20.000000    49.227458 
   81.000000    20.000000    -0.622232    90.000000    20.000000    50.782172 
   90.000000    20.000000     0.782172   100.000000    20.000000    52.317627 
  101.000000    20.000000     2.461998   110.000000    20.000000    53.626217 
  112.000000    20.000000     3.843773   120.000000    20.000000    54.522542 
  123.000000    20.000000     4.688191   130.000000    20.000000    54.862971 
  134.000000    20.000000     4.821947   140.000000    20.000000    54.561074 
  145.000000    20.000000     4.160422   150.000000    20.000000    53.597390 
  156.000000    20.000000     2.719734   160.000000    20.000000    52.022542 
  167.000000    20.000000     0.616681   170.000000    20.000000    49.953357 
  178.000000    20.000000    -1.943470   180.000000    20.000000    47.562345 
  189.000000    20.000000    -4.689966   190.000000    20.000000    45.061558 
  200.000000    20.000000    -7.317627   200.000000    20.000000    42.682373 
    0.000000    30.000000     1.595071     0.000000    30.000000    51.595071 
    9.000000    30.000000    -0.183985    10.000000    30.000000    49.635141 
   18.000000    30.000000    -1.654097    20.000000    30.000000    48.072734 
   27.000000    30.000000    -2.707357    30.000000    30.000000    47.047370 
   36.000000    30.000000    -3.274660    40.000000    30.000000    46.637422 
   45.000000    30.000000    -3.330894    50.000000    30.000000    46.852985 
   54.000000    30.000000    -2.896545    60.000000    30.000000    47.635625 
   63.000000    30.000000    -2.035566    70.000000    30.000000    48.865024 
   72.000000    30.000000    -0.849713    80.000000    30.000000    50.371826 
   81.000000    30.000000     0.530202    90.000000    30.000000    51.955431 
   90.000000    30.000000     1.955431   100.000000    30.000000    53.404929 
  101.000000    30.000000     3.534616   110.000000    30.000000    54.521129 
  112.000000    30.000000     4.688926   120.000000    30.000000    55.137464 
  123.000000    30.000000     5.205949   130.000000    30.000000    55.137710 
  134.000000    30.000000     4.951092   140.000000    30.000000    54.468736 
  145.000000    30.000000     3.885684   150.000000    30.000000    53.147015 
  156.000000    30.000000     2.073596   160.000000    30.000000    51.258216 
  167.000000    30.000000    -0.324457   170.000000    30.000000    48.949896 
  178.000000    30.000000    -3.068330   180.000000    30.000000    46.417976 
  189.000000    30.000000    -5.865546   190.000000    30.000000    43.888300 
  200.000000    30.000000    -8.404929   200.000000    30.000000    41.595071 
    0.000000    40.000000     0.591611     0.000000    40.000000    50.591611 
    9.000000    40.000000    -0.976044    10.000000    40.000000    48.870814 
   18.000000    40.000000    -2.171855    20.000000    40.000000    47.622359 
   27.000000    40.000000    -2.909698    30.000000    40.000000    46.955033 
   36.000000    40.000000    -3.145515    40.000000    40.000000    46.912161 
   45.000000    40.000000    -2.880519    50.000000    40.000000    47.467906 
   54.000000    40.000000    -2.160705    60.000000    40.000000    48.530537 
   63.000000    40.000000    -1.072697    70.000000    40.000000    49.952325 
   72.000000    40.000000     0.263722    80.000000    40.000000    51.545085 
   81.000000    40.000000     1.705782    90.000000    40.000000    53.099800 
   90.000000    40.000000     3.099800   100.000000    40.000000    54.408389 
  101.000000    40.000000     4.518266   110.000000    40.000000    55.285455 
  112.000000    40.000000     5.395553   120.000000    40.000000    55.587839 
  123.000000    40.000000     5.552001   130.000000    40.000000    55.230048 
  134.000000    40.000000     4.895653   140.000000    40.000000    54.193998 
  145.000000    40.000000     3.435309   150.000000    40.000000    52.532094 
  156.000000    40.000000     1.281537   160.000000    40.000000    50.363304 
  167.000000    40.000000    -1.364548   170.000000    40.000000    47.862595 
  178.000000    40.000000    -4.233475   180.000000    40.000000    45.244717 
  189.000000    40.000000    -7.017980   190.000000    40.000000    42.743931 
  200.000000    40.000000    -9.408389   200.000000    40.000000    40.591611 
    0.000000    50.000000    -0.303301     0.000000    50.000000    49.696699 
    9.000000    50.000000    -1.622182    10.000000    50.000000    48.255893 
   18.000000    50.000000    -2.517907    20.000000    50.000000    47.347620 
   27.000000    50.000000    -2.928184    30.000000    50.000000    47.047370 
   36.000000    50.000000    -2.834966    40.000000    50.000000    47.362536 
   45.000000    50.000000    -2.265598    50.000000    50.000000    48.232233 
   54.000000    50.000000    -1.290244    60.000000    50.000000    49.533998 
   63.000000    50.000000    -0.015820    70.000000    50.000000    51.096694 
   72.000000    50.000000     1.423084    80.000000    50.000000    52.718343 
   81.000000    50.000000     2.875561    90.000000    50.000000    54.187101 
   90.000000    50.000000     4.187101   100.000000    50.000000    55.303301 
  101.000000    50.000000     5.388728   110.000000    50.000000    55.900377 
  112.000000    50.000000     5.946253   120.000000    50.000000    55.862578 
  123.000000    50.000000     5.717826   130.000000    50.000000    55.137710 
  134.000000    50.000000     4.656996   140.000000    50.000000    53.743623 
  145.000000    50.000000     2.820387   150.000000    50.000000    51.767767 
  156.000000    50.000000     0.363059   160.000000    50.000000    49.359844 
  167.000000    50.000000    -2.477983   170.000000    50.000000    46.718226 
  178.000000    50.000000    -5.410216   180.000000    50.000000    44.071459 
  189.000000    50.000000    -8.118891   190.000000    50.000000    41.656630 
  200.000000    50.000000   -10.303301   200.000000    50.000000    39.696699 
    0.000000    60.000000    -1.067627     0.000000    60.000000    48.932373 
    9.000000    60.000000    -2.106487    10.000000    60.000000    47.805518 
   18.000000    60.000000    -2.683732    20.000000    60.000000    47.255283 
   27.000000    60.000000    -2.762359    30.000000    60.000000    47.322109 
   36.000000    60.000000    -2.350660    40.000000    60.000000    47.977458 
   45.000000    60.000000    -1.501271    50.000000    60.000000    49.127145 
   54.000000    60.000000    -0.306593    60.000000    60.000000    50.621299 
   63.000000    60.000000     1.109040    70.000000    60.000000    52.269952 
   72.000000    60.000000     2.599825    80.000000    60.000000    53.862712 
   81.000000    60.000000     4.010736    90.000000    60.000000    55.190562 
   90.000000    60.000000     5.190562   100.000000    60.000000    56.067627 
  101.000000    60.000000     6.124568   110.000000    60.000000    56.350752 
  112.000000    60.000000     6.327467   120.000000    60.000000    55.954915 
  123.000000    60.000000     5.699341   130.000000    60.000000    54.862971 
  134.000000    60.000000     4.240996   140.000000    60.000000    53.128701 
  145.000000    60.000000     2.056061   150.000000    60.000000    50.872855 
  156.000000    60.000000    -0.659222   160.000000    60.000000    48.272542 
  167.000000    60.000000    -3.637345   170.000000    60.000000    45.544967 
  178.000000    60.000000    -6.569578   180.000000    60.000000    42.927090 
  189.000000    60.000000    -9.141172   190.000000    60.000000    40.653169 
  200.000000    60.000000   -11.067627   200.000000    60.000000    38.932373 
    0.000000    70.000000    -1.682549     0.000000    70.000000    48.317451 
    9.000000    70.000000    -2.417036    10.000000    70.000000    47.530779 
   18.000000    70.000000    -2.665246    20.000000    70.000000    47.347620 
   27.000000    70.000000    -2.416307    30.000000    70.000000    47.772484 
   36.000000    70.000000    -1.704523    40.000000    70.000000    48.741784 
   45.000000    70.000000    -0.606360    50.000000    70.000000    50.130605 
   54.000000    70.000000     0.766025    60.000000    70.000000    51.765668 
   63.000000    70.000000     2.274185    70.000000    70.000000    53.443211 
   72.000000    70.000000     3.764971    80.000000    70.000000    54.950014 
   81.000000    70.000000     5.083354    90.000000    70.000000    56.085473 
   90.000000    70.000000     6.085473   100.000000    70.000000    56.682549 
  101.000000    70.000000     6.707666   110.000000    70.000000    56.625490 
  112.000000    70.000000     6.529808   120.000000    70.000000    55.862578 
  123.000000    70.000000     5.496999   130.000000    70.000000    54.412596 
  134.000000    70.000000     3.657897   140.000000    70.000000    52.364375 
  145.000000    70.000000     1.161149   150.000000    70.000000    49.869395 
  156.000000    70.000000    -1.760133   160.000000    70.000000    47.128174 
  167.000000    70.000000    -4.814086   170.000000    70.000000    44.371709 
  178.000000    70.000000    -7.683013   180.000000    70.000000    41.839789 
  189.000000    70.000000   -10.059650   190.000000    70.000000    39.758257 
  200.000000    70.000000   -11.682549   200.000000    70.000000    38.317451 
    0.000000    80.000000    -2.132924     0.000000    80.000000    47.867076 
    9.000000    80.000000    -2.546181    10.000000    80.000000    47.438442 
   18.000000    80.000000    -2.462905    20.000000    80.000000    47.622359 
   27.000000    80.000000    -1.898549    30.000000    80.000000    48.387405 
   36.000000    80.000000    -0.912464    40.000000    80.000000    49.636696 
   45.000000    80.000000     0.397101    50.000000    80.000000    51.217906 
   54.000000    80.000000     1.901199    60.000000    80.000000    52.938926 
   63.000000    80.000000     3.450926    70.000000    80.000000    54.587580 
   72.000000    80.000000     4.889831    80.000000    80.000000    55.953474 
   81.000000    80.000000     6.067005    90.000000    80.000000    56.849800 
   90.000000    80.000000     6.849800   100.000000    80.000000    57.132924 
  101.000000    80.000000     7.123666   110.000000    80.000000    56.717828 
  112.000000    80.000000     6.548294   120.000000    80.000000    55.587839 
  123.000000    80.000000     5.115785   130.000000    80.000000    53.797675 
  134.000000    80.000000     2.922058   140.000000    80.000000    51.469463 
  145.000000    80.000000     0.157689   150.000000    80.000000    48.782094 
  156.000000    80.000000    -2.912567   160.000000    80.000000    45.954915 
  167.000000    80.000000    -5.979232   170.000000    80.000000    43.227340 
  178.000000    80.000000    -8.723105   180.000000    80.000000    40.836328 
  189.000000    80.000000   -10.851709   190.000000    80.000000    38.993931 
  200.000000    80.000000   -12.132924   200.000000    80.000000    37.867076 
    0.000000    90.000000    -2.407663     0.000000    90.000000    47.592337 
    9.000000    90.000000    -2.490742    10.000000    90.000000    47.530779 
   18.000000    90.000000    -2.081691    20.000000    90.000000    48.072734 
   27.000000    90.000000    -1.221833    30.000000    90.000000    49.151732 
   36.000000    90.000000     0.006014    40.000000    90.000000    50.640156 
   45.000000    90.000000     1.484402    50.000000    90.000000    52.362275 
   54.000000    90.000000     3.070979    60.000000    90.000000    54.112185 
   63.000000    90.000000     4.610288    70.000000    90.000000    55.674881 
   72.000000    90.000000     5.946707    80.000000    90.000000    56.848386 
   81.000000    90.000000     6.937466    90.000000    90.000000    57.464721 
   90.000000    90.000000     7.464721   100.000000    90.000000    57.407663 
  101.000000    90.000000     7.362324   110.000000    90.000000    56.625490 
  112.000000    90.000000     6.382469   120.000000    90.000000    55.137464 
  123.000000    90.000000     4.565085   130.000000    90.000000    53.033348 
  134.000000    90.000000     2.051596   140.000000    90.000000    50.466002 
  145.000000    90.000000    -0.929613   150.000000    90.000000    47.637725 
  156.000000    90.000000    -4.088147   160.000000    90.000000    44.781657 
  167.000000    90.000000    -7.104092   170.000000    90.000000    42.140039 
  178.000000    90.000000    -9.664243   180.000000    90.000000    39.941417 
  189.000000    90.000000   -11.497847   190.000000    90.000000    38.379009 
  200.000000    90.000000   -12.407663   200.000000    90.000000    37.592337 
    0.000000   100.000000    -2.500000     0.000000   100.000000    47.500000 
    9.000000   100.000000    -2.252084    10.000000   100.000000    47.805518 
   18.000000   100.000000    -1.530991    20.000000   100.000000    48.687655 
   27.000000   100.000000    -0.402823    30.000000   100.000000    50.046643 
   36.000000   100.000000     1.028295    40.000000   100.000000    51.727458 
   45.000000   100.000000     2.628771    50.000000   100.000000    53.535534 
   54.000000   100.000000     4.246559    60.000000   100.000000    55.256554 
   63.000000   100.000000     5.723723    70.000000   100.000000    56.678342 
   72.000000   100.000000     6.909576    80.000000   100.000000    57.612712 
   81.000000   100.000000     7.673306    90.000000   100.000000    57.915096 
   90.000000   100.000000     7.915096   100.000000   100.000000    57.500000 
  101.000000   100.000000     7.417763   110.000000   100.000000    56.350752 
  112.000000   100.000000     6.036417   120.000000   100.000000    54.522542 
  123.000000   100.000000     3.858459   130.000000   100.000000    52.138437 
  134.000000   100.000000     1.067945   140.000000   100.000000    49.378701 
  145.000000   100.000000    -2.073982   150.000000   100.000000    46.464466 
  156.000000   100.000000    -5.257926   160.000000   100.000000    43.637288 
  167.000000   100.000000    -8.160968   170.000000   100.000000    41.136578 
  178.000000   100.000000   -10.483253   180.000000   100.000000    39.177090 
  189.000000   100.000000   -11.982152   190.000000   100.000000    37.928634 
  200.000000   100.000000   -12.500000   200.000000   100.000000    37.500000 
    0.000000   110.000000    -2.407663     0.000000   110.000000    47.592337 
    9.000000   110.000000    -1.836085    10.000000   110.000000    48.255893 
   18.000000   110.000000    -0.824365    20.000000   110.000000    49.451982 
   27.000000   110.000000     0.538315    30.000000   110.000000    51.050104 
   36.000000   110.000000     2.129206    40.000000   110.000000    52.871826 
   45.000000   110.000000     3.802030    50.000000   110.000000    54.708792 
   54.000000   110.000000     5.398993    60.000000   110.000000    56.343855 
   63.000000   110.000000     6.763815    70.000000   110.000000    57.573253 
   72.000000   110.000000     7.754729    80.000000   110.000000    58.227634 
   81.000000   110.000000     8.256405    90.000000   110.000000    58.189835 
   90.000000   110.000000     8.189835   100.000000   110.000000    57.407663 
  101.000000   110.000000     7.288618   110.000000   110.000000    55.900377 
  112.000000   110.000000     5.518659   120.000000   110.000000    53.758216 
  123.000000   110.000000     3.013306   130.000000   110.000000    51.134976 
  134.000000   110.000000    -0.004673   140.000000   110.000000    48.234332 
  145.000000   110.000000    -3.247240   150.000000   110.000000    45.291208 
  156.000000   110.000000    -6.393101   160.000000   110.000000    42.549986 
  167.000000   110.000000    -9.123837   170.000000   110.000000    40.241667 
  178.000000   110.000000   -11.159969   180.000000   110.000000    38.562168 
  189.000000   110.000000   -12.292701   190.000000   110.000000    37.653896 
  200.000000   110.000000   -12.407663   200.000000   110.000000    37.592337 
    0.000000   120.000000    -2.132924     0.000000   120.000000    47.867076 
    9.000000   120.000000    -1.252986    10.000000   120.000000    48.870814 
   18.000000   120.000000     0.020789    20.000000   120.000000    50.346893 
   27.000000   120.000000     1.578407    30.000000   120.000000    52.137405 
   36.000000   120.000000     3.281640    40.000000   120.000000    54.045085 
   45.000000   120.000000     4.975288    50.000000   120.000000    55.853161 
   54.000000   120.000000     6.499904    60.000000   120.000000    57.347316 
   63.000000   120.000000     7.704953    70.000000   120.000000    58.337580 
   72.000000   120.000000     8.461356    80.000000   120.000000    58.678009 
   81.000000   120.000000     8.672404    90.000000   120.000000    58.282172 
   90.000000   120.000000     8.282172   100.000000   120.000000    57.132924 
  101.000000   120.000000     6.978069   110.000000   120.000000    55.285455 
  112.000000   120.000000     4.841943   120.000000   120.000000    52.863304 
  123.000000   120.000000     2.050436   130.000000   120.000000    50.047675 
  134.000000   120.000000    -1.139847   140.000000   120.000000    47.061074 
  145.000000   120.000000    -4.420499   150.000000   120.000000    44.146839 
  156.000000   120.000000    -7.465719   160.000000   120.000000    41.546526 
  167.000000   120.000000    -9.968991   170.000000   120.000000    39.477340 
  178.000000   120.000000   -11.677727   180.000000   120.000000    38.111794 
  189.000000   120.000000   -12.421846   190.000000   120.000000    37.561558 
  200.000000   120.000000   -12.132924   200.000000   120.000000    37.867076 
    0.000000   130.000000    -1.682549     0.000000   130.000000    48.317451 
    9.000000   130.000000    -0.517146    10.000000   130.000000    49.635141 
   18.000000   130.000000     0.983658    20.000000   130.000000    51.350354 
   27.000000   130.000000     2.691842    30.000000   130.000000    53.281774 
   36.000000   130.000000     4.457220    40.000000   130.000000    55.218343 
   45.000000   130.000000     6.119657    50.000000   130.000000    56.940463 
   54.000000   130.000000     7.522185    60.000000   130.000000    58.242227 
   63.000000   130.000000     8.523963    70.000000   130.000000    58.952501 
   72.000000   130.000000     9.012056    80.000000   130.000000    58.952748 
   81.000000   130.000000     8.911062    90.000000   130.000000    58.189835 
   90.000000   130.000000     8.189835   100.000000   130.000000    56.682549 
  101.000000   130.000000     6.493764   110.000000   130.000000    54.521129 
  112.000000   130.000000     4.022932   120.000000   130.000000    51.859844 
  123.000000   130.000000     0.993560   130.000000   130.000000    48.903306 
  134.000000   130.000000    -2.309626   140.000000   130.000000    45.887815 
  145.000000   130.000000    -5.564868   150.000000   130.000000    43.059537 
  156.000000   130.000000    -8.449369   160.000000   130.000000    40.651614 
  167.000000   130.000000   -10.675617   170.000000   130.000000    38.862418 
  178.000000   130.000000   -12.023780   180.000000   130.000000    37.837055 
  189.000000   130.000000   -12.366407   190.000000   130.000000    37.653896 
  200.000000   130.000000   -11.682549   200.000000   130.000000    38.317451 
    0.000000   140.000000    -1.067627     0.000000   140.000000    48.932373 
    9.000000   140.000000     0.353315    10.000000   140.000000    50.530052 
   18.000000   140.000000     2.040534    20.000000   140.000000    52.437655 
   27.000000   140.000000     3.851204    30.000000   140.000000    54.455033 
   36.000000   140.000000     5.626999    40.000000   140.000000    56.362712 
   45.000000   140.000000     7.206959    50.000000   140.000000    57.943923 
   54.000000   140.000000     8.440663    60.000000   140.000000    59.006554 
   63.000000   140.000000     9.200679    70.000000   140.000000    59.402876 
   72.000000   140.000000     9.393270    80.000000   140.000000    59.045085 
   81.000000   140.000000     8.966501    90.000000   140.000000    57.915096 
   90.000000   140.000000     7.915096   100.000000   140.000000    56.067627 
  101.000000   140.000000     5.847626   110.000000   140.000000    53.626217 
  112.000000   140.000000     3.081794   120.000000   140.000000    50.772542 
  123.000000   140.000000    -0.131300   130.000000   140.000000    47.730048 
  134.000000   140.000000    -3.485206   140.000000   140.000000    44.743446 
  145.000000   140.000000    -6.652169   150.000000   140.000000    42.056077 
  156.000000   140.000000    -9.319831   160.000000   140.000000    39.887288 
  167.000000   140.000000   -11.226317   170.000000   140.000000    38.412044 
  178.000000   140.000000   -12.189604   180.000000   140.000000    37.744717 
  189.000000   140.000000   -12.127749   190.000000   140.000000    37.928634 
  200.000000   140.000000   -11.067627   200.000000   140.000000    38.932373 
    0.000000   150.000000    -0.303301     0.000000   150.000000    49.696699 
    9.000000   150.000000     1.336966    10.000000   150.000000    51.533513 
   18.000000   150.000000     3.165394    20.000000   150.000000    53.582024 
   27.000000   150.000000     5.027945    30.000000   150.000000    55.628291 
   36.000000   150.000000     6.762174    40.000000   150.000000    57.450014 
   45.000000   150.000000     8.210419    50.000000   150.000000    58.838835 
   54.000000   150.000000     9.232722    60.000000   150.000000    59.621475 
   63.000000   150.000000     9.718438    70.000000   150.000000    59.677615 
   72.000000   150.000000     9.595611    80.000000   150.000000    58.952748 
   81.000000   150.000000     8.837356    90.000000   150.000000    57.464721 
   90.000000   150.000000     7.464721   100.000000   150.000000    55.303301 
  101.000000   150.000000     5.055567   110.000000   150.000000    52.622756 
  112.000000   150.000000     2.041703   120.000000   150.000000    49.628174 
  123.000000   150.000000    -1.296445   130.000000   150.000000    46.556789 
  134.000000   150.000000    -4.637640   140.000000   150.000000    43.656145 
  145.000000   150.000000    -7.655630   150.000000   150.000000    41.161165 
  156.000000   150.000000   -10.055671   160.000000   150.000000    39.272366 
  167.000000   150.000000   -11.607531   170.000000   150.000000    38.137305 
  178.000000   150.000000   -12.171119   180.000000   150.000000    37.837055 
  189.000000   150.000000   -11.711750   190.000000   150.000000    38.379009 
  200.000000   150.000000   -10.303301   200.000000   150.000000    39.696699 
    0.000000   160.000000     0.591611     0.000000   160.000000    50.591611 
    9.000000   160.000000     2.409584    10.000000   160.000000    52.620814 
   18.000000   160.000000     4.330540    20.000000   160.000000    54.755283 
   27.000000   160.000000     6.193091    30.000000   160.000000    56.772660 
   36.000000   160.000000     7.834792    40.000000   160.000000    58.453474 
   45.000000   160.000000     9.105331    50.000000   160.000000    59.603161 
   54.000000   160.000000     9.878859    60.000000   160.000000    60.071850 
   63.000000   160.000000    10.064490    70.000000   160.000000    59.769952 
   72.000000   160.000000     9.614097    80.000000   160.000000    58.678009 
   81.000000   160.000000     8.526807    90.000000   160.000000    56.849800 
   90.000000   160.000000     6.849800   100.000000   160.000000    54.408389 
  101.000000   160.000000     4.137089   110.000000   160.000000    51.535455 
  112.000000   160.000000     0.928268   120.000000   160.000000    48.454915 
  123.000000   160.000000    -2.473187   130.000000   160.000000    45.412420 
  134.000000   160.000000    -5.738552   140.000000   160.000000    42.652684 
  145.000000   160.000000    -8.550541   150.000000   160.000000    40.396839 
  156.000000   160.000000   -10.638769   160.000000   160.000000    38.821991 
  167.000000   160.000000   -11.809872   170.000000   160.000000    38.044967 
  178.000000   160.000000   -11.968778   180.000000   160.000000    38.111794 
  189.000000   160.000000   -11.128651   190.000000   160.000000    38.993931 
  200.000000   160.000000    -9.408389   200.000000   160.000000    40.591611 
    0.000000   170.000000     1.595071     0.000000   170.000000    51.595071 
    9.000000   170.000000     3.544758    10.000000   170.000000    53.765183 
   18.000000   170.000000     5.507281    20.000000   170.000000    55.928541 
   27.000000   170.000000     7.317951    30.000000   170.000000    57.859961 
   36.000000   170.000000     8.818443    40.000000   170.000000    59.348386 
   45.000000   170.000000     9.869657    50.000000   170.000000    60.218083 
   54.000000   170.000000    10.363165    60.000000   170.000000    60.346589 
   63.000000   170.000000    10.230315    70.000000   170.000000    59.677615 
   72.000000   170.000000     9.448272    80.000000   170.000000    58.227634 
   81.000000   170.000000     8.042502    90.000000   170.000000    56.085473 
   90.000000   170.000000     6.085473   100.000000   170.000000    53.404929 
  101.000000   170.000000     3.114808   110.000000   170.000000    50.391086 
  112.000000   170.000000    -0.231094   120.000000   170.000000    47.281657 
  123.000000   170.000000    -3.632548   130.000000   170.000000    44.325119 
  134.000000   170.000000    -6.760832   140.000000   170.000000    41.757773 
  145.000000   170.000000    -9.314868   150.000000   170.000000    39.781917 
  156.000000   170.000000   -11.054769   160.000000   170.000000    38.547252 
  167.000000   170.000000   -11.828358   170.000000   170.000000    38.137305 
  178.000000   170.000000   -11.587564   180.000000   170.000000    38.562168 
  189.000000   170.000000   -10.392811   190.000000   170.000000    39.758257 
  200.000000   170.000000    -8.404929   200.000000   170.000000    41.595071 